<?xml version="1.0"?>
<VTKFile type="UnstructuredGrid" version="0.1" byte_order="BigEndian">
<UnstructuredGrid GhostLevel="0">
<Piece NumberOfPoints="17684" NumberOfCells="8043" ><Points>
<DataArray type="Float32" NumberOfComponents="3" format="ascii">
214270	4.37351e+06	2246.65	214270	4.37341e+06	2257.27	214370	4.37351e+06	2238.11	214370	4.37341e+06	2248.91	214270	4.37351e+06	0	214270	4.37341e+06	0	214370	4.37351e+06	0	214370	4.37341e+06	0	214470	4.37351e+06	2219.92	214470	4.37341e+06	2231.32	214470	4.37351e+06	0	214470	4.37341e+06	0	214570	4.37351e+06	2207.49	214570	4.37341e+06	2216.04	214570	4.37351e+06	0	214570	4.37341e+06	0	214670	4.37351e+06	2203.41	214670	4.37341e+06	2207.5	214670	4.37351e+06	0	214670	4.37341e+06	0	214770	4.37351e+06	2200.8	214770	4.37341e+06	2204.59	214770	4.37351e+06	0	214770	4.37341e+06	0	214870	4.37351e+06	2199.46	214870	4.37341e+06	2204.03	214870	4.37351e+06	0	214870	4.37341e+06	0	214970	4.37351e+06	2199.75	214970	4.37341e+06	2203.64	214970	4.37351e+06	0	214970	4.37341e+06	0	215070	4.37351e+06	2200.01	215070	4.37341e+06	2202.42	215070	4.37351e+06	0	215070	4.37341e+06	0	215170	4.37351e+06	2197.85	215170	4.37341e+06	2199.05	215170	4.37351e+06	0	215170	4.37341e+06	0	215270	4.37351e+06	2188.43	215270	4.37341e+06	2189.46	215270	4.37351e+06	0	215270	4.37341e+06	0	215370	4.37351e+06	2170.19	215370	4.37341e+06	2170.77	215370	4.37351e+06	0	215370	4.37341e+06	0	215470	4.37351e+06	2152.63	215470	4.37341e+06	2152.9	215470	4.37351e+06	0	215470	4.37341e+06	0	215570	4.37351e+06	2144	215570	4.37341e+06	2144.81	215570	4.37351e+06	0	215570	4.37341e+06	0	215670	4.37351e+06	2139.89	215670	4.37341e+06	2141.54	215670	4.37351e+06	0	215670	4.37341e+06	0	215770	4.37351e+06	2137.8	215770	4.37341e+06	2140.99	215770	4.37351e+06	0	215770	4.37341e+06	0	215870	4.37351e+06	2141.65	215870	4.37341e+06	2144.86	215870	4.37351e+06	0	215870	4.37341e+06	0	215970	4.37351e+06	2142.64	215970	4.37341e+06	2145.4	215970	4.37351e+06	0	215970	4.37341e+06	0	216070	4.37351e+06	2138.71	216070	4.37341e+06	2141.77	216070	4.37351e+06	0	216070	4.37341e+06	0	216170	4.37351e+06	2138.31	216170	4.37341e+06	2140.81	216170	4.37351e+06	0	216170	4.37341e+06	0	216270	4.37351e+06	2139.75	216270	4.37341e+06	2141.81	216270	4.37351e+06	0	216270	4.37341e+06	0	216370	4.37351e+06	2140.99	216370	4.37341e+06	2143.88	216370	4.37351e+06	0	216370	4.37341e+06	0	216470	4.37351e+06	2140	216470	4.37341e+06	2145.3	216470	4.37351e+06	0	216470	4.37341e+06	0	216570	4.37351e+06	2133.56	216570	4.37341e+06	2137.61	216570	4.37351e+06	0	216570	4.37341e+06	0	216670	4.37351e+06	2120.12	216670	4.37341e+06	2122.42	216670	4.37351e+06	0	216670	4.37341e+06	0	216770	4.37351e+06	2108.62	216770	4.37341e+06	2112.65	216770	4.37351e+06	0	216770	4.37341e+06	0	216870	4.37351e+06	2105.54	216870	4.37341e+06	2110.42	216870	4.37351e+06	0	216870	4.37341e+06	0	216970	4.37351e+06	2105.25	216970	4.37341e+06	2110.39	216970	4.37351e+06	0	216970	4.37341e+06	0	217070	4.37351e+06	2102.53	217070	4.37341e+06	2108.61	217070	4.37351e+06	0	217070	4.37341e+06	0	217170	4.37351e+06	2098.85	217170	4.37341e+06	2105.3	217170	4.37351e+06	0	217170	4.37341e+06	0	217270	4.37351e+06	2093.85	217270	4.37341e+06	2095.97	217270	4.37351e+06	0	217270	4.37341e+06	0	217370	4.37351e+06	2076.39	217370	4.37341e+06	2077.69	217370	4.37351e+06	0	217370	4.37341e+06	0	217470	4.37351e+06	2064.11	217470	4.37341e+06	2068.44	217470	4.37351e+06	0	217470	4.37341e+06	0	217570	4.37351e+06	2073.87	217570	4.37341e+06	2082.02	217570	4.37351e+06	0	217570	4.37341e+06	0	217670	4.37351e+06	2097.17	217670	4.37341e+06	2108.63	217670	4.37351e+06	0	217670	4.37341e+06	0	217770	4.37351e+06	2117.53	217770	4.37341e+06	2125.84	217770	4.37351e+06	0	217770	4.37341e+06	0	217870	4.37351e+06	2125.03	217870	4.37341e+06	2128.74	217870	4.37351e+06	0	217870	4.37341e+06	0	217970	4.37351e+06	2125.23	217970	4.37341e+06	2126.64	217970	4.37351e+06	0	217970	4.37341e+06	0	218070	4.37351e+06	2121.18	218070	4.37341e+06	2122.59	218070	4.37351e+06	0	218070	4.37341e+06	0	218170	4.37351e+06	2117.99	218170	4.37341e+06	2119.49	218170	4.37351e+06	0	218170	4.37341e+06	0	218270	4.37351e+06	2117.01	218270	4.37341e+06	2118.23	218270	4.37351e+06	0	218270	4.37341e+06	0	218370	4.37351e+06	2117.85	218370	4.37341e+06	2118.59	218370	4.37351e+06	0	218370	4.37341e+06	0	218470	4.37351e+06	2119.7	218470	4.37341e+06	2119.56	218470	4.37351e+06	0	218470	4.37341e+06	0	218570	4.37351e+06	2124.56	218570	4.37341e+06	2123.43	218570	4.37351e+06	0	218570	4.37341e+06	0	218670	4.37351e+06	2133.04	218670	4.37341e+06	2131.96	218670	4.37351e+06	0	218670	4.37341e+06	0	218770	4.37351e+06	2140.26	218770	4.37341e+06	2140.95	218770	4.37351e+06	0	218770	4.37341e+06	0	218870	4.37351e+06	2139.72	218870	4.37341e+06	2143.19	218870	4.37351e+06	0	218870	4.37341e+06	0	218970	4.37351e+06	2132.55	218970	4.37341e+06	2139.73	218970	4.37351e+06	0	218970	4.37341e+06	0	219070	4.37351e+06	2127.77	219070	4.37341e+06	2136.02	219070	4.37351e+06	0	219070	4.37341e+06	0	219170	4.37351e+06	2121.71	219170	4.37341e+06	2131.02	219170	4.37351e+06	0	219170	4.37341e+06	0	219270	4.37351e+06	2115.01	219270	4.37341e+06	2126.69	219270	4.37351e+06	0	219270	4.37341e+06	0	219370	4.37351e+06	2118.09	219370	4.37341e+06	2126.49	219370	4.37351e+06	0	219370	4.37341e+06	0	219470	4.37351e+06	2112.28	219470	4.37341e+06	2117.94	219470	4.37351e+06	0	219470	4.37341e+06	0	219570	4.37351e+06	2095.2	219570	4.37341e+06	2101.35	219570	4.37351e+06	0	219570	4.37341e+06	0	219670	4.37351e+06	2087.36	219670	4.37341e+06	2092.3	219670	4.37351e+06	0	219670	4.37341e+06	0	219770	4.37351e+06	2088.31	219770	4.37341e+06	2091.03	219770	4.37351e+06	0	219770	4.37341e+06	0	219870	4.37351e+06	2093.13	219870	4.37341e+06	2093.87	219870	4.37351e+06	0	219870	4.37341e+06	0	219970	4.37351e+06	2099.89	219970	4.37341e+06	2099.83	219970	4.37351e+06	0	219970	4.37341e+06	0	220070	4.37351e+06	2104.17	220070	4.37341e+06	2105.52	220070	4.37351e+06	0	220070	4.37341e+06	0	220170	4.37351e+06	2100.53	220170	4.37341e+06	2105.18	220170	4.37351e+06	0	220170	4.37341e+06	0	220270	4.37351e+06	2089.65	220270	4.37341e+06	2096.4	220270	4.37351e+06	0	220270	4.37341e+06	0	220370	4.37351e+06	2077.69	220370	4.37341e+06	2082.86	220370	4.37351e+06	0	220370	4.37341e+06	0	220470	4.37351e+06	2069.04	220470	4.37341e+06	2071.74	220470	4.37351e+06	0	220470	4.37341e+06	0	220570	4.37351e+06	2061.31	220570	4.37341e+06	2064.02	220570	4.37351e+06	0	220570	4.37341e+06	0	220670	4.37351e+06	2052.76	220670	4.37341e+06	2056.13	220670	4.37351e+06	0	220670	4.37341e+06	0	220770	4.37351e+06	2044.83	220770	4.37341e+06	2048.25	220770	4.37351e+06	0	220770	4.37341e+06	0	220870	4.37351e+06	2038.75	220870	4.37341e+06	2042.49	220870	4.37351e+06	0	220870	4.37341e+06	0	220970	4.37351e+06	2036.3	220970	4.37341e+06	2039.86	220970	4.37351e+06	0	220970	4.37341e+06	0	221070	4.37351e+06	2035.03	221070	4.37341e+06	2038.69	221070	4.37351e+06	0	221070	4.37341e+06	0	221170	4.37351e+06	2033.48	221170	4.37341e+06	2038.01	221170	4.37351e+06	0	221170	4.37341e+06	0	221270	4.37351e+06	2034.37	221270	4.37341e+06	2038.7	221270	4.37351e+06	0	221270	4.37341e+06	0	221370	4.37351e+06	2032.42	221370	4.37341e+06	2033.42	221370	4.37351e+06	0	221370	4.37341e+06	0	221470	4.37351e+06	2019.7	221470	4.37341e+06	2019.1	221470	4.37351e+06	0	221470	4.37341e+06	0	221570	4.37351e+06	1999.3	221570	4.37341e+06	2002.42	221570	4.37351e+06	0	221570	4.37341e+06	0	221670	4.37351e+06	1988.51	221670	4.37341e+06	1994.13	221670	4.37351e+06	0	221670	4.37341e+06	0	214270	4.37331e+06	2279.4	214370	4.37331e+06	2272.46	214270	4.37331e+06	0	214370	4.37331e+06	0	214470	4.37331e+06	2256.09	214470	4.37331e+06	0	214570	4.37331e+06	2234.93	214570	4.37331e+06	0	214670	4.37331e+06	2217.74	214670	4.37331e+06	0	214770	4.37331e+06	2212.76	214770	4.37331e+06	0	214870	4.37331e+06	2214.2	214870	4.37331e+06	0	214970	4.37331e+06	2213.71	214970	4.37331e+06	0	215070	4.37331e+06	2208.52	215070	4.37331e+06	0	215170	4.37331e+06	2200.95	215170	4.37331e+06	0	215270	4.37331e+06	2190.11	215270	4.37331e+06	0	215370	4.37331e+06	2171.96	215370	4.37331e+06	0	215470	4.37331e+06	2155.66	215470	4.37331e+06	0	215570	4.37331e+06	2148.4	215570	4.37331e+06	0	215670	4.37331e+06	2145.32	215670	4.37331e+06	0	215770	4.37331e+06	2145.7	215770	4.37331e+06	0	215870	4.37331e+06	2148.68	215870	4.37331e+06	0	215970	4.37331e+06	2148.3	215970	4.37331e+06	0	216070	4.37331e+06	2145.21	216070	4.37331e+06	0	216170	4.37331e+06	2144.43	216170	4.37331e+06	0	216270	4.37331e+06	2146.08	216270	4.37331e+06	0	216370	4.37331e+06	2151.6	216370	4.37331e+06	0	216470	4.37331e+06	2155.19	216470	4.37331e+06	0	216570	4.37331e+06	2146.3	216570	4.37331e+06	0	216670	4.37331e+06	2132.11	216670	4.37331e+06	0	216770	4.37331e+06	2124.57	216770	4.37331e+06	0	216870	4.37331e+06	2122.65	216870	4.37331e+06	0	216970	4.37331e+06	2122.44	216970	4.37331e+06	0	217070	4.37331e+06	2121.35	217070	4.37331e+06	0	217170	4.37331e+06	2115.23	217170	4.37331e+06	0	217270	4.37331e+06	2099.51	217270	4.37331e+06	0	217370	4.37331e+06	2082.55	217370	4.37331e+06	0	217470	4.37331e+06	2078.85	217470	4.37331e+06	0	217570	4.37331e+06	2099.77	217570	4.37331e+06	0	217670	4.37331e+06	2128.51	217670	4.37331e+06	0	217770	4.37331e+06	2137.67	217770	4.37331e+06	0	217870	4.37331e+06	2133.96	217870	4.37331e+06	0	217970	4.37331e+06	2129.12	217970	4.37331e+06	0	218070	4.37331e+06	2125.22	218070	4.37331e+06	0	218170	4.37331e+06	2122.32	218170	4.37331e+06	0	218270	4.37331e+06	2120.47	218270	4.37331e+06	0	218370	4.37331e+06	2119.69	218370	4.37331e+06	0	218470	4.37331e+06	2119.62	218470	4.37331e+06	0	218570	4.37331e+06	2122.2	218570	4.37331e+06	0	218670	4.37331e+06	2130.57	218670	4.37331e+06	0	218770	4.37331e+06	2141.88	218770	4.37331e+06	0	218870	4.37331e+06	2148.95	218870	4.37331e+06	0	218970	4.37331e+06	2152	218970	4.37331e+06	0	219070	4.37331e+06	2149	219070	4.37331e+06	0	219170	4.37331e+06	2141.9	219170	4.37331e+06	0	219270	4.37331e+06	2137.52	219270	4.37331e+06	0	219370	4.37331e+06	2132.85	219370	4.37331e+06	0	219470	4.37331e+06	2121.86	219470	4.37331e+06	0	219570	4.37331e+06	2107.95	219570	4.3733
[...]
<CellData Scalars="scalars">
<DataArray type="Int32" Name="nodeid" format="ascii">1	2	3	4	5	6	7	8	9	10	11	12	13	14	15	16	17	18	19	20	21	22	23	24	25	26	27	28	29	30	31	32	33	34	35	36	37	38	39	40	41	42	43	44	45	46	47	48	49	50	51	52	53	54	55	56	57	58	59	60	61	62	63	64	65	66	67	68	69	70	71	72	73	74	75	76	77	78	79	80	81	82	83	84	85	86	87	88	89	90	91	92	93	94	95	96	97	98	99	100	101	102	103	104	105	106	107	108	109	110	111	112	113	114	115	116	117	118	119	120	121	122	123	124	125	126	127	128	129	130	131	132	133	134	135	136	137	138	139	140	141	142	143	144	145	146	147	148	149	150	151	152	153	154	155	156	157	158	159	160	161	162	163	164	165	166	167	168	169	170	171	172	173	174	175	176	177	178	179	180	181	182	183	184	185	186	187	188	189	190	191	192	193	194	195	196	197	198	199	200	201	202	203	204	205	206	207	208	209	210	211	212	213	214	215	216	217	218	219	220	221	222	223	224	225	226	227	228	229	230	231	232	233	234	235	236	237	238	239	240	241	242	243	244	245	246	247	248	249	250	251	252	253	254	255	256	257	258	259	260	261	262	263	264	265	266	267	268	269	270	271	272	273	274	275	276	277	278	279	280	281	282	283	284	285	286	287	288	289	290	291	292	293	294	295	296	297	298	299	300	301	302	303	304	305	306	307	308	309	310	311	312	313	314	315	316	317	318	319	320	321	322	323	324	325	326	327	328	329	330	331	332	333	334	335	336	337	338	339	340	341	342	343	344	345	346	347	348	349	350	351	352	353	354	355	356	357	358	359	360	361	362	363	364	365	366	367	368	369	370	371	372	373	374	375	376	377	378	379	380	381	382	383	384	385	386	387	388	389	390	391	392	393	394	395	396	397	398	399	400	401	402	403	404	405	406	407	408	409	410	411	412	413	414	415	416	417	418	419	420	421	422	423	424	425	426	427	428	429	430	431	432	433	434	435	436	437	438	439	440	441	442	443	444	445	446	447	448	449	450	451	452	453	454	455	456	457	458	459	460	461	462	463	464	465	466	467	468	469	470	471	472	473	474	475	476	477	478	479	480	481	482	483	484	485	486	487	488	489	490	491	492	493	494	495	496	497	498	499	500	501	502	503	504	505	506	507	508	509	510	511	512	513	514	515	516	517	518	519	520	521	522	523	524	525	526	527	528	529	530	531	532	533	534	535	536	537	538	539	540	541	542	543	544	545	546	547	548	549	550	551	552	553	554	555	556	557	558	559	560	561	562	563	564	565	566	567	568	569	570	571	572	573	574	575	576	577	578	579	580	581	582	583	584	585	586	587	588	589	590	591	592	593	594	595	596	597	598	599	600	601	602	603	604	605	606	607	608	609	610	611	612	613	614	615	616	617	618	619	620	621	622	623	624	625	626	627	628	629	630	631	632	633	634	635	636	637	638	639	640	641	642	643	644	645	646	647	648	649	650	651	652	653	654	655	656	657	658	659	660	661	662	663	664	665	666	667	668	669	670	671	672	673	674	675	676	677	678	679	680	681	682	683	684	685	686	687	688	689	690	691	692	693	694	695	696	697	698	699	700	701	702	703	704	705	706	707	708	709	710	711	712	713	714	715	716	717	718	719	720	721	722	723	724	725	726	727	728	729	730	731	732	733	734	735	736	737	738	739	740	741	742	743	744	745	746	747	748	749	750	751	752	753	754	755	756	757	758	759	760	761	762	763	764	765	766	767	768	769	770	771	772	773	774	775	776	777	778	779	780	781	782	783	784	785	786	787	788	789	790	791	792	793	794	795	796	797	798	799	800	801	802	803	804	805	806	807	808	809	810	811	812	813	814	815	816	817	818	819	820	821	822	823	824	825	826	827	828	829	830	831	832	833	834	835	836	837	838	839	840	841	842	843	844	845	846	847	848	849	850	851	852	853	854	855	856	857	858	859	860	861	862	863	864	865	866	867	868	869	870	871	872	873	874	875	876	877	878	879	880	881	882	883	884	885	886	887	888	889	890	891	892	893	894	895	896	897	898	899	900	901	902	903	904	905	906	907	908	909	910	911	912	913	914	915	916	917	918	919	920	921	922	923	924	925	926	927	928	929	930	931	932	933	934	935	936	937	938	939	940	941	942	943	944	945	946	947	948	949	950	951	952	953	954	955	956	957	958	959	960	961	962	963	964	965	966	967	968	969	970	971	972	973	974	975	976	977	978	979	980	981	982	983	984	985	986	987	988	989	990	991	992	993	994	995	996	997	998	999	1000	1001	1002	1003	1004	1005	1006	1007	1008	1009	1010	1011	1012	1013	1014	1015	1016	1017	1018	1019	1020	1021	1022	1023	1024	1025	1026	1027	1028	1029	1030	1031	1032	1033	1034	1035	1036	1037	1038	1039	1040	1041	1042	1043	1044	1045	1046	1047	1048	1049	1050	1051	1052	1053	1054	1055	1056	1057	1058	1059	1060	1061	1062	1063	1064	1065	1066	1067	1068	1069	1070	1071	1072	1073	1074	1075	1076	1077	1078	1079	1080	1081	1082	1083	1084	1085	1086	1087	1088	1089	1090	1091	1092	1093	1094	1095	1096	1097	1098	1099	1100	1101	1102	1103	1104	1105	1106	1107	1108	1109	1110	1111	1112	1113	1114	1115	1116	1117	1118	1119	1120	1121	1122	1123	1124	1125	1126	1127	1128	1129	1130	1131	1132	1133	1134	1135	1136	1137	1138	1139	1140	1141	1142	1143	1144	1145	1146	1147	1148	1149	1150	1151	1152	1153	1154	1155	1156	1157	1158	1159	1160	1161	1162	1163	1164	1165	1166	1167	1168	1169	1170	1171	1172	1173	1174	1175	1176	1177	1178	1179	1180	1181	1182	1183	1184	1185	1186	1187	1188	1189	1190	1191	1192	1193	1194	1195	1196	1197	1198	1199	1200	1201	1202	1203	1204	1205	1206	1207	1208	1209	1210	1211	1212	1213	1214	1215	1216	1217	1218	1219	1220	1221	1222	1223	1224	1225	1226	1227	1228	1229	1230	1231	1232	1233	1234	1235	1236	1237	1238	1239	5107	5108	5110	5109	1241	1242	1243	1244	1245	1246	1247	1248	1249	1250	1251	1252	1253	1254	1255	1256	1257	1258	1259	1260	1261	1262	1263	1264	1265	1266	1267	1268	1269	1270	1271	1272	1273	1274	1275	1276	1277	1278	1279	1280	1281	1282	1283	1284	1285	1286	1287	1288	1289	1290	1291	1292	1293	1294	1295	1296	1297	1298	1299	1300	1301	1302	1303	1304	1305	1306	1307	1308	1309	1310	1311	1312	5111	5112	5114	5113	5119	5120	5122	5121	5123	5124	5126	5125	5131	5132	5134	5133	5127	5128	5130	5129	5135	5136	5138	5137	1316	1317	1318	1319	1320	1321	1322	1323	1324	1325	1326	1327	1328	1329	1330	1331	1332	1333	1334	1335	1336	1337	1338	1339	1340	1341	1342	1343	1344	1345	1346	1347	1348	1349	1350	1351	1352	1353	1354	1355	1356	1357	1358	1359	1360	1361	1362	1363	1364	1365	1366	1367	1368	1369	1370	1371	1372	1373	1374	1375	1376	1377	1378	1379	1380	1381	1382	1383	1384	1385	1386	1387	5139	5143	5144	5146	5145	5147	5148	5150	5149	5141	5155	5156	5158	5157	5152	5163	5164	5166	5165	5159	5160	5162	5161	5167	5168	5170	5169	1391	1392	1393	1394	1395	1396	1397	1398	1399	1400	1401	1402	1403	1404	1405	1406	1407	1408	1409	1410	1411	1412	1413	1414	1415	1416	1417	1418	1419	1420	1421	1422	1423	1424	1425	1426	1427	1428	1429	1430	1431	1432	1433	1434	1435	1436	1437	1438	1439	1440	1441	1442	1443	1444	1445	1446	1447	1448	1449	1450	1451	1452	1453	1454	1455	1456	1457	1458	1459	1460	1461	5171	5172	5174	5173	5179	5180	5182	5181	5183	5184	5186	5185	5187	5188	5190	5189	5177	5191	5192	5194	5195	5196	5198	5197	1465	5199	5200	5202	5201	5203	5204	5206	5205	1468	1469	1470	1471	1472	1473	1474	1475	1476	1477	1478	1479	1480	1481	1482	1483	1484	1485	1486	1487	1488	1489	1490	1491	1492	1493	1494	1495	1496	1497	1498	1499	1500	1501	1502	1503	1504	1505	1506	1507	1508	1509	1510	1511	1512	1513	1514	1515	1516	1517	1518	1519	1520	1521	1522	1523	5207	5208	5211	5212	5214	5213	5209	5215	5216	5218	5219	5220	5222	5221	1526	1527	1528	1529	1530	1531	1532	1533	1534	1535	1536	5223	5227	5228	5230	5229	5226	5225	5235	5236	5238	5237	5239	5240	5242	5241	5247	5248	5250	5249	5243	5244	5246	5245	5251	5252	5254	5255	5256	5258	5257	5259	5263	5264	5266	5265	5267	5268	5270	5269	5261	5275	5276	5278	5277	5279	5280	5282	5281	5274	5283	5284	5286	5285	5287	5288	5290	5289	1543	1544	1545	1546	1547	1548	1549	1550	1551	1552	1553	1554	1555	1556	1557	1558	1559	1560	1561	1562	1563	1564	1565	1566	1567	1568	1569	1570	1571	1572	1573	1574	1575	1576	1577	1578	1579	1580	1581	1582	1583	1584	1585	1586	1587	1588	1589	1590	1591	1592	1593	1594	1595	1596	1597	5291	5295	5296	5298	5297	5294	5293	5303	5304	5306	5305	5300	5302	5307	5308	5310	5309	1600	1601	1602	1603	1604	1605	1606	1607	1608	1609	1610	1611	5311	5315	5316	5318	5317	5314	5313	5323	5324	5326	5325	5320	5331	5332	5334	5333	5327	5328	5330	5329	5339	5340	5342	5341	5343	5344	5346	5345	5351	5352	5354	5353	5347	5348	5350	5349	5355	5356	5358	5357	1616	1617	1618	1619	1620	1621	1622	1623	1624	1625	1626	1627	1628	1629	1630	1631	1632	1633	1634	1635	1636	1637	1638	1639	1640	1641	1642	1643	1644	1645	1646	1647	1648	1649	1650	1651	1652	1653	1654	1655	1656	1657	1658	1659	1660	1661	1662	1663	1664	1665	1666	1667	1668	1669	1670	1671	5359	5360	5362	5361	5367	5368	5370	5369	5364	5366	5371	5372	5374	5373	1674	1675	1676	1677	1678	1679	1680	1681	1682	1683	1684	1685	5375	5376	5378	5377	5383	5384	5386	5385	5387	5388	5390	5389	5391	5392	5394	5393	5381	5399	5400	5402	5401	5396	5398	5397	1689	1690	1691	1692	1693	1694	1695	1696	1697	1698	1699	1700	1701	1702	1703	1704	1705	1706	1707	1708	1709	1710	1711	1712	1713	1714	1715	1716	1717	1718	1719	1720	1721	1722	1723	1724	1725	1726	1727	1728	1729	1730	1731	1732	1733	1734	1735	1736	1737	1738	1739	1740	1741	1742	1743	1744	1745	5403	5404	5406	5405	5411	5412	5414	5413	5408	5419	5420	5422	5421	5415	5416	5418	5417	5423	5424	5426	5425	1749	1750	1751	1752	1753	1754	1755	1756	1757	1758	1759	1760	5427	5431	5432	5434	5433	5435	5436	5438	5437	5429	5443	5444	5446	5445	5440	5451	5452	5454	5453	5447	5448	5450	5449	5455	5456	5458	5457	1764	1765	1766	1767	1768	1769	1770	1771	1772	1773	1774	1775	1776	1777	1778	1779	1780	1781	1782	1783	1784	1785	1786	1787	1788	1789	1790	1791	1792	1793	1794	1795	1796	1797	1798	1799	1800	1801	1802	1803	1804	1805	1806	1807	1808	1809	1810	1811	1812	1813	1814	1815	1816	1817	1818	1819	5459	5460	5462	5461	5467	5468	5470	5469	5471	5472	5474	5473	5475	5476	5478	5477	5465	5479	5480	5482	5481	1823	1824	1825	1826	1827	1828	1829	1830	1831	1832	1833	1834	5483	5484	5486	5485	5491	5492	5494	5493	5495	5496	5498	5497	5490	5489	5503	5504	5506	5505	5507	5508	5510	5509	5515	5516	5518	5517	5511	5512	5514	5513	5519	5520	5522	5523	5524	5526	5525	1839	1840	1841	1842	1843	1844	1845	1846	1847	1848	1849	1850	1851	1852	1853	1854	1855	1856	1857	1858	1859	1860	1861	1862	1863	1864	1865	1866	1867	1868	1869	1870	1871	1872	1873	1874	1875	1876	1877	1878	1879	1880	1881	1882	1883	1884	1885	1886	1887	1888	1889	1890	1891	1892	1893	1894	5527	5531	5532	5534	5533	5535	5536	5538	5537	5529	5543	5544	5546	5545	5540	5551	5552	5554	5553	5547	5548	5550	5549	5555	5556	5558	5557	1898	1899	1900	1901	1902	1903	1904	1905	1906	1907	1908	1909	1910	5559	5563	5564	5566	5565	5562	5561	5571	5572	5574	5573	5568	5579	5580	5582	5581	5575	5576	5578	5577	5583	5584	5586	5585	1914	1915	1916	1917	1918	1919	1920	1921	1922	1923	1924	1925	1926	1927	1928	1929	1930	1931	1932	1933	1934	1935	1936	1937	1938	1939	1940	1941	1942	1943	1944	1945	1946	1947	1948	1949	1950	1951	1952	1953	1954	1955	1956	1957	1958	1959	1960	1961	1962	1963	1964	1965	1966	1967	1968	5587	5588	5590	5589	5595	5596	5598	5597	5599	5600	5602	5601	5603	5604	5606	5605	5593	5607	5608	5610	5611	5612	5614	5613	1972	1973	1974	1975	1976	1977	1978	1979	1980	1981	1982	1983	1984	5615	5616	5618	5617	5623	5624	5626	5625	5627	5628	5630	5629	5631	5632	5634	5633	5621	5635	5636	5638	5637	1988	1989	1990	1991	1992	1993	1994	1995	1996	1997	1998	1999	2000	2001	2002	2003	2004	2005	2006	2007	2008	2009	2010	2011	2012	2013	2014	2015	2016	2017	2018	2019	2020	2021	2022	2023	2024	2025	2026	2027	2028	2029	2030	2031	2032	2033	2034	2035	2036	2037	2038	2039	2040	2041	2042	2043	5639	5643	5644	5646	5645	5642	5641	5651	5652	5654	5653	5648	5659	5660	5662	5661	5655	5656	5658	5657	5663	5664	5666	5665	2047	2048	2049	2050	2051	2052	2053	2054	2055	2056	2057	2058	2059	5667	5671	5672	5674	5673	5675	5676	5678	5677	5669	5679	5680	5682	5683	5684	5686	5685	2062	2063	2064	2065	2066	2067	2068	2069	2070	2071	2072	2073	2074	2075	2076	2077	2078	2079	2080	2081	2082	2083	2084	2085	2086	2087	2088	2089	2090	2091	2092	2093	2094	2095	2096	2097	2098	2099	2100	2101	2102	2103	2104	2105	2106	2107	2108	2109	2110	2111	2112	2113	2114	2115	2116	2117	5687	5688	5690	5689	5695	5696	5698	5697	5699	5700	5702	5701	5703	5704	5706	5705	5693	5707	5708	5710	5711	5712	5714	5713	2121	2122	2123	2124	2125	2126	2127	2128	2129	2130	2131	2132	2133	5715	5719	5720	5722	5721	5718	5717	5727	5728	5730	5729	5724	5726	5731	5732	5734	5733	2136	2137	2138	2139	2140	2141	2142	2143	2144	2145	2146	2147	2148	2149	2150	2151	2152	2153	2154	2155	2156	2157	2158	2159	2160	2161	2162	2163	2164	2165	2166	2167	2168	2169	2170	2171	2172	2173	2174	2175	2176	2177	2178	2179	2180	2181	2182	2183	2184	2185	2186	2187	2188	2189	2190	2191	2192	5735	5739	5740	5742	5741	5738	5737	5747	5748	5750	5749	5744	5746	5751	5752	5754	5753	2195	2196	2197	2198	2199	2200	2201	2202	2203	2204	2205	2206	2207	5755	5756	5758	5757	5763	5764	5766	5765	5767	5768	5770	5769	5775	5776	5778	5777	5771	5772	5774	5773	5779	5780	5782	5781	2211	2212	2213	2214	2215	2216	2217	2218	2219	2220	2221	2222	2223	2224	2225	2226	2227	2228	2229	2230	2231	2232	2233	2234	2235	2236	2237	2238	2239	2240	2241	2242	2243	2244	2245	2246	2247	2248	2249	2250	2251	2252	2253	2254	2255	2256	2257	2258	2259	2260	2261	2262	2263	2264	2265	2266	5783	5784	5786	5785	5791	5792	5794	5793	5788	5790	5795	5796	5798	5797	2269	2270	2271	2272	2273	2274	2275	2276	2277	2278	2279	2280	2281	2282	5799	5803	5804	5806	5805	5807	5808	5810	5809	5801	5815	5816	5818	5817	5812	5814	5819	5820	5822	5821	2285	2286	2287	2288	2289	2290	2291	2292	2293	2294	2295	2296	2297	2298	2299	2300	2301	2302	2303	2304	2305	2306	2307	2308	2309	2310	2311	2312	2313	2314	2315	2316	2317	2318	2319	2320	2321	2322	2323	2324	2325	2326	2327	2328	2329	5823	5824	5826	5825	5827	5828	5835	5836	5838	5837	5831	5832	5834	5833	5839	5840	5847	5848	5850	5849	5843	5844	5846	5845	5851	5852	5859	5860	5862	5861	5855	5856	5858	5857	5863	5864	5871	5872	5874	5873	5867	5868	5870	5869	5875	5876	5878	5877	2336	2337	2338	2339	2340	5879	5880	5882	5881	5887	5888	5890	5889	5891	5892	5894	5893	5899	5900	5902	5901	5895	5896	5898	5897	5903	5904	5906	5905	2344	2345	2346	2347	2348	2349	2350	2351	2352	2353	2354	2355	2356	5907	5908	5910	5909	5915	5916	5918	5917	5912	5914	5919	5920	5922	5921	2359	2360	2361	2362	2363	2364	2365	2366	2367	2368	2369	2370	2371	2372	2373	2374	2375	2376	2377	2378	2379	2380	2381	2382	2383	2384	2385	2386	2387	2388	2389	2390	2391	2392	2393	2394	2395	2396	2397	2398	2399	2400	2401	2402	5923	5924	5927	5928	5930	5929	5925	5935	5936	5938	5937	5939	5940	5942	5941	5947	5948	5950	5949	5943	5944	5946	5945	5955	5956	5958	5957	5959	5960	5962	5961	5954	5953	5963	5964	5966	5965	5967	5968	5970	5969	5975	5976	5978	5977	5979	5980	5982	5981	5974	5973	5987	5988	5990	5989	5991	5992	5994	5993	5999	6000	6002	6001	5995	5996	5998	5997	6003	6004	6006	6007	6008	6010	6009	6011	6012	6014	6013	6015	6016	6018	6017	2413	2414	2415	6019	6023	6024	6026	6025	6027	6028	6030	6029	6021	6035	6036	6038	6037	6032	6043	6044	6046	6045	6039	6040	6042	6041	6047	6048	6050	6049	2419	2420	2421	2422	2423	2424	2425	2426	2427	2428	2429	2430	6051	6055	6056	6058	6057	6059	6060	6062	6061	6053	6067	6068	6070	6069	6064	6066	6071	6072	6074	6073	2433	2434	2435	2436	2437	2438	2439	2440	2441	2442	2443	2444	2445	2446	2447	2448	2449	2450	2451	2452	2453	2454	2455	2456	2457	2458	2459	2460	2461	2462	2463	2464	2465	2466	2467	2468	2469	2470	2471	2472	2473	6075	6076	6078	6077	6079	6080	6087	6088	6090	6089	6083	6084	6086	6085	6091	6092	6099	6100	6102	6101	6095	6096	6098	6097	6107	6108	6110	6109	6111	6112	6114	6113	6119	6120	6122	6121	6115	6116	6118	6117	6127	6128	6130	6129	6124	6126	6125	2479	2480	2481	2482	6131	6135	6136	6138	6137	6134	6133	6143	6144	6146	6145	6147	6148	6150	6149	6151	6152	6154	6153	6141	6159	6160	6162	6161	6163	6164	6166	6165	6158	6167	6168	6170	6169	6175	6176	6178	6177	6179	6180	6182	6181	6187	6188	6190	6189	6183	6184	6186	6185	6191	6192	6199	6200	6202	6201	6195	6196	6198	6197	6203	6204	6206	6205	6207	6208	6210	6209	6211	6212	6214	6213	6219	6220	6222	6221	6223	6224	6226	6225	6218	6217	6231	6232	6234	6233	6235	6236	6238	6237	6243	6244	6246	6245	6239	6240	6242	6241	6247	6248	6250	6251	6252	6254	6253	2494	2495	2496	2497	2498	2499	2500	2501	2502	2503	2504	6255	6259	6260	6262	6261	6263	6264	6266	6265	6257	6267	6268	6270	6269	2507	2508	2509	2510	2511	2512	2513	2514	2515	2516	2517	2518	2519	2520	2521	2522	2523	2524	2525	2526	2527	2528	2529	2530	2531	2532	2533	2534	2535	2536	2537	2538	2539	2540	2541	6271	6272	6274	6273	6275	6276	6278	6277	6279	6280	6282	6281	6283	6284	6286	6285	6287	6288	6290	6289	6291	6292	6299	6300	6302	6301	6295	6296	6298	6297	6307	6308	6310	6309	6311	6312	6314	6313	6319	6320	6322	6321	6315	6316	6318	6317	6327	6328	6330	6329	6331	6332	6334	6333	6326	6325	6335	6339	6340	6342	6341	6343	6344	6346	6345	6337	6351	6352	6354	6353	6348	6350	6355	6356	6358	6357	2552	2553	2554	2555	2556	6359	6360	6362	6361	6367	6368	6370	6369	6371	6372	6374	6373	6379	6380	6382	6381	6375	6376	6378	6377	6383	6384	6386	6385	6387	6388	6390	6389	6395	6396	6398	6397	6399	6400	6402	6401	6394	6393	6407	6408	6410	6409	6411	6412	6414	6413	6406	6405	6419	6420	6422	6421	6423	6424	6426	6425	6431	6432	6434	6433	6427	6428	6430	6429	6435	6436	6443	6444	6446	6445	6439	6440	6442	6441	6447	6448	6450	6451	6452	6454	6453	6455	6459	6460	6462	6461	6458	6457	6467	6468	6470	6469	6471	6472	6474	6473	6479	6480	6482	6481	6475	6476	6478	6477	6483	6484	6486	6487	6488	6490	6489	2569	2570	2571	2572	2573	2574	2575	2576	2577	2578	6491	6495	6496	6498	6497	6499	6500	6502	6501	6493	6503	6504	6506	6505	2581	2582	2583	2584	2585	2586	2587	2588	2589	2590	2591	2592	2593	2594	2595	2596	2597	2598	2599	2600	2601	2602	2603	2604	2605	2606	2607	2608	2609	2610	2611	2612	2613	6507	6508	6510	6509	6511	6512	6514	6513	6515	6519	6520	6522	6521	6527	6528	6530	6529	6523	6524	6526	6525	6535	6536	6538	6537	6539	6540	6542	6541	6534	6543	6544	6546	6545	6551	6552	6554	6553	6555	6556	6558	6557	6550	6549	6563	6564	6566	6565	6567	6568	6570	6569	6562	6561	6575	6576	6578	6577	6579	6580	6582	6581	6587	6588	6590	6589	6583	6584	6586	6585	6595	6596	6598	6597	6599	6600	6602	6601	6594	6603	6604	6606	6605	6607	6608	6610	6609	2623	6611	6615	6616	6618	6617	6619	6620	6622	6621	6613	6623	6624	6626	6625	2626	2627	2628	2629	2630	6627	6631	6632	6634	6633	6635	6636	6638	6637	6629	6643	6644	6646	6645	6640	6642	6647	6648	6650	6649	2633	2634	2635	2636	6651	6652	6654	6653	6655	6659	6660	6662	6661	6658	6657	6667	6668	6670	6669	6671	6672	6674	6673	6666	6665	6679	6680	6682	6681	6683	6684	6686	6685	6678	6677	6691	6692	6694	6693	6695	6696	6698	6697	6703	6704	6706	6705	6699	6700	6702	6701	6711	6712	6714	6713	6715	6716	6718	6717	6723	6724	6726	6725	6719	6720	6722	6721	6727	6728	6735	6736	6738	6737	6731	6732	6734	6733	6739	6740	6742	6741	6743	6744	6746	6745	6747	6748	6750	6749	2647	2648	2649	2650	2651	2652	6751	6755	6756	6758	6757	6759	6760	6762	6761	6753	6763	6764	6766	6765	2655	2656	2657	2658	2659	2660	2661	2662	2663	2664	2665	2666	2667	2668	2669	2670	2671	2672	2673	2674	2675	2676	2677	2678	2679	2680	2681	2682	2683	2684	2685	2686	2687	6767	6771	6772	6774	6773	6770	6769	6779	6780	6782	6781	6783	6784	6786	6785	6778	6777	6791	6792	6794	6793	6795	6796	6798	6797	6790	6789	6799	6800	6802	6801	6803	6804	6806	6805	6807	6811	6812	6814	6813	6819	6820	6822	6821	6815	6816	6818	6817	6827	6828	6830	6829	6831	6832	6834	6833	6826	6835	6836	6838	6837	6839	6840	6842	6841	2696	2697	6843	6847	6848	6850	6849	6851	6852	6854	6853	6845	6855	6856	6858	6857	2700	2701	2702	2703	2704	6859	6863	6864	6866	6865	6867	6868	6870	6869	6861	6871	6872	6874	6873	2707	2708	2709	2710	2711	2712	2713	2714	6875	6876	6878	6877	6883	6884	6886	6885	6887	6888	6890	6889	6882	6881	6895	6896	6898	6897	6899	6900	6902	6901	6894	6893	6907	6908	6910	6909	6911	6912	6914	6913	6906	6905	6919	6920	6922	6921	6923	6924	6926	6925	6927	6928	6930	6929	6917	6935	6936	6938	6937	6939	6940	6942	6941	6947	6948	6950	6949	6943	6944	6946	6945	6951	6952	6959	6960	6962	6961	6955	6956	6958	6957	6963	6964	6971	6972	6974	6973	6967	6968	6970	6969	6975	6976	6983	6984	6986	6985	6979	6980	6982	6981	6987	6988	6995	6996	6998	6997	6991	6992	6994	6993	6999	7000	7002	7001	7003	7004	7006	7005	7007	7011	7012	7014	7013	7015	7016	7018	7017	7009	7019	7020	7022	7023	7024	7026	7025	2729	2730	2731	2732	2733	2734	2735	2736	2737	2738	2739	2740	2741	2742	2743	2744	2745	2746	2747	2748	2749	2750	2751	2752	2753	2754	2755	2756	2757	2758	2759	2760	2761	2762	2763	2764	7027	